# vtk DataFile Version 3.0
SWC2VTK
ASCII
DATASET UNSTRUCTURED_GRID
POINTS 560 float
1.100000 0.000000 -0.000000
1.100000 0.000000 -0.000000
1.100000 0.000000 -0.000000
1.100000 0.000000 -0.000000
1.100000 0.000000 -0.000000
1.100000 0.000000 -0.000000
1.100000 0.000000 -0.000000
1.100000 0.000000 -0.000000
1.092388 0.000000 -0.038268
1.092388 0.027060 -0.027060
1.092388 0.038268 -0.000000
1.092388 0.027060 0.027060
1.092388 0.000000 0.038268
1.092388 -0.027060 0.027060
1.092388 -0.038268 -0.000000
1.092388 -0.027060 -0.027060
1.070711 0.000000 -0.070711
1.070711 0.050000 -0.050000
1.070711 0.070711 -0.000000
1.070711 0.050000 0.050000
1.070711 0.000000 0.070711
1.070711 -0.050000 0.050000
1.070711 -0.070711 0.000000
1.070711 -0.050000 -0.050000
1.038268 0.000000 -0.092388
1.038268 0.065328 -0.065328
1.038268 0.092388 -0.000000
1.038268 0.065328 0.065328
1.038268 0.000000 0.092388
1.038268 -0.065328 0.065328
1.038268 -0.092388 0.000000
1.038268 -0.065328 -0.065328
1.000000 0.000000 -0.100000
1.000000 0.070711 -0.070711
1.000000 0.100000 -0.000000
1.000000 0.070711 0.070711
1.000000 0.000000 0.100000
1.000000 -0.070711 0.070711
1.000000 -0.100000 0.000000
1.000000 -0.070711 -0.070711
1.000000 0.100000 0.000000
0.000000 0.100000 0.000000
1.000000 0.070711 -0.070711
0.000000 0.070711 -0.070711
1.000000 0.000000 -0.100000
0.000000 0.000000 -0.100000
1.000000 -0.070711 -0.070711
0.000000 -0.070711 -0.070711
1.000000 -0.100000 -0.000000
0.000000 -0.100000 0.000000
1.000000 -0.070711 0.070711
0.000000 -0.070711 0.070711
1.000000 -0.000000 0.100000
0.000000 -0.000000 0.100000
1.000000 0.070711 0.070711
0.000000 0.070711 0.070711
2.400000 0.000000 -0.000000
2.400000 0.000000 -0.000000
2.400000 0.000000 -0.000000
2.400000 0.000000 -0.000000
2.400000 0.000000 -0.000000
2.400000 0.000000 -0.000000
2.400000 0.000000 -0.000000
2.400000 0.000000 -0.000000
2.369552 0.000000 -0.153073
2.369552 0.108239 -0.108239
2.369552 0.153073 -0.000000
2.369552 0.108239 0.108239
2.369552 0.000000 0.153073
2.369552 -0.108239 0.108239
2.369552 -0.153073 -0.000000
2.369552 -0.108239 -0.108239
2.282843 0.000000 -0.282843
2.282843 0.200000 -0.200000
2.282843 0.282843 -0.000000
2.282843 0.200000 0.200000
2.282843 0.000000 0.282843
2.282843 -0.200000 0.200000
2.282843 -0.282843 0.000000
2.282843 -0.200000 -0.200000
2.153073 0.000000 -0.369552
2.153073 0.261313 -0.261313
2.153073 0.369552 -0.000000
2.153073 0.261313 0.261313
2.153073 0.000000 0.369552
2.153073 -0.261313 0.261313
2.153073 -0.369552 0.000000
2.153073 -0.261313 -0.261313
2.000000 0.000000 -0.400000
2.000000 0.282843 -0.282843
2.000000 0.400000 -0.000000
2.000000 0.282843 0.282843
2.000000 0.000000 0.400000
2.000000 -0.282843 0.282843
2.000000 -0.400000 0.000000
2.000000 -0.282843 -0.282843
2.000000 0.400000 0.000000
1.000000 0.100000 0.000000
2.000000 0.282843 -0.282843
1.000000 0.070711 -0.070711
2.000000 0.000000 -0.400000
1.000000 0.000000 -0.100000
2.000000 -0.282843 -0.282843
1.000000 -0.070711 -0.070711
2.000000 -0.400000 -0.000000
1.000000 -0.100000 0.000000
2.000000 -0.282843 0.282843
1.000000 -0.070711 0.070711
2.000000 -0.000000 0.400000
1.000000 -0.000000 0.100000
2.000000 0.282843 0.282843
1.000000 0.070711 0.070711
3.400000 0.000000 -0.000000
3.400000 0.000000 -0.000000
3.400000 0.000000 -0.000000
3.400000 0.000000 -0.000000
3.400000 0.000000 -0.000000
3.400000 0.000000 -0.000000
3.400000 0.000000 -0.000000
3.400000 0.000000 -0.000000
3.369552 0.000000 -0.153073
3.369552 0.108239 -0.108239
3.369552 0.153073 -0.000000
3.369552 0.108239 0.108239
3.369552 0.000000 0.153073
3.369552 -0.108239 0.108239
3.369552 -0.153073 -0.000000
3.369552 -0.108239 -0.108239
3.282843 0.000000 -0.282843
3.282843 0.200000 -0.200000
3.282843 0.282843 -0.000000
3.282843 0.200000 0.200000
3.282843 0.000000 0.282843
3.282843 -0.200000 0.200000
3.282843 -0.282843 0.000000
3.282843 -0.200000 -0.200000
3.153073 0.000000 -0.369552
3.153073 0.261313 -0.261313
3.153073 0.369552 -0.000000
3.153073 0.261313 0.261313
3.153073 0.000000 0.369552
3.153073 -0.261313 0.261313
3.153073 -0.369552 0.000000
3.153073 -0.261313 -0.261313
3.000000 0.000000 -0.400000
3.000000 0.282843 -0.282843
3.000000 0.400000 -0.000000
3.000000 0.282843 0.282843
3.000000 0.000000 0.400000
3.000000 -0.282843 0.282843
3.000000 -0.400000 0.000000
3.000000 -0.282843 -0.282843
3.000000 0.400000 0.000000
2.000000 0.400000 0.000000
3.000000 0.282843 -0.282843
2.000000 0.282843 -0.282843
3.000000 0.000000 -0.400000
2.000000 0.000000 -0.400000
3.000000 -0.282843 -0.282843
2.000000 -0.282843 -0.282843
3.000000 -0.400000 -0.000000
2.000000 -0.400000 0.000000
3.000000 -0.282843 0.282843
2.000000 -0.282843 0.282843
3.000000 -0.000000 0.400000
2.000000 -0.000000 0.400000
3.000000 0.282843 0.282843
2.000000 0.282843 0.282843
4.100000 0.000000 -0.000000
4.100000 0.000000 -0.000000
4.100000 0.000000 -0.000000
4.100000 0.000000 -0.000000
4.100000 0.000000 -0.000000
4.100000 0.000000 -0.000000
4.100000 0.000000 -0.000000
4.100000 0.000000 -0.000000
4.092388 0.000000 -0.038268
4.092388 0.027060 -0.027060
4.092388 0.038268 -0.000000
4.092388 0.027060 0.027060
4.092388 0.000000 0.038268
4.092388 -0.027060 0.027060
4.092388 -0.038268 -0.000000
4.092388 -0.027060 -0.027060
4.070711 0.000000 -0.070711
4.070711 0.050000 -0.050000
4.070711 0.070711 -0.000000
4.070711 0.050000 0.050000
4.070711 0.000000 0.070711
4.070711 -0.050000 0.050000
4.070711 -0.070711 0.000000
4.070711 -0.050000 -0.050000
4.038268 0.000000 -0.092388
4.038268 0.065328 -0.065328
4.038268 0.092388 -0.000000
4.038268 0.065328 0.065328
4.038268 0.000000 0.092388
4.038268 -0.065328 0.065328
4.038268 -0.092388 0.000000
4.038268 -0.065328 -0.065328
4.000000 0.000000 -0.100000
4.000000 0.070711 -0.070711
4.000000 0.100000 -0.000000
4.000000 0.070711 0.070711
4.000000 0.000000 0.100000
4.000000 -0.070711 0.070711
4.000000 -0.100000 0.000000
4.000000 -0.070711 -0.070711
4.000000 0.100000 0.000000
3.000000 0.400000 0.000000
4.000000 0.070711 -0.070711
3.000000 0.282843 -0.282843
4.000000 0.000000 -0.100000
3.000000 0.000000 -0.400000
4.000000 -0.070711 -0.070711
3.000000 -0.282843 -0.282843
4.000000 -0.100000 -0.000000
3.000000 -0.400000 0.000000
4.000000 -0.070711 0.070711
3.000000 -0.282843 0.282843
4.000000 -0.000000 0.100000
3.000000 -0.000000 0.400000
4.000000 0.070711 0.070711
3.000000 0.282843 0.282843
5.100000 0.000000 -0.000000
5.100000 0.000000 -0.000000
5.100000 0.000000 -0.000000
5.100000 0.000000 -0.000000
5.100000 0.000000 -0.000000
5.100000 0.000000 -0.000000
5.100000 0.000000 -0.000000
5.100000 0.000000 -0.000000
5.092388 0.000000 -0.038268
5.092388 0.027060 -0.027060
5.092388 0.038268 -0.000000
5.092388 0.027060 0.027060
5.092388 0.000000 0.038268
5.092388 -0.027060 0.027060
5.092388 -0.038268 -0.000000
5.092388 -0.027060 -0.027060
5.070711 0.000000 -0.070711
5.070711 0.050000 -0.050000
5.070711 0.070711 -0.000000
5.070711 0.050000 0.050000
5.070711 0.000000 0.070711
5.070711 -0.050000 0.050000
5.070711 -0.070711 0.000000
5.070711 -0.050000 -0.050000
5.038268 0.000000 -0.092388
5.038268 0.065328 -0.065328
5.038268 0.092388 -0.000000
5.038268 0.065328 0.065328
5.038268 0.000000 0.092388
5.038268 -0.065328 0.065328
5.038268 -0.092388 0.000000
5.038268 -0.065328 -0.065328
5.000000 0.000000 -0.100000
5.000000 0.070711 -0.070711
5.000000 0.100000 -0.000000
5.000000 0.070711 0.070711
5.000000 0.000000 0.100000
5.000000 -0.070711 0.070711
5.000000 -0.100000 0.000000
5.000000 -0.070711 -0.070711
5.000000 0.100000 0.000000
4.000000 0.100000 0.000000
5.000000 0.070711 -0.070711
4.000000 0.070711 -0.070711
5.000000 0.000000 -0.100000
4.000000 0.000000 -0.100000
5.000000 -0.070711 -0.070711
4.000000 -0.070711 -0.070711
5.000000 -0.100000 -0.000000
4.000000 -0.100000 0.000000
5.000000 -0.070711 0.070711
4.000000 -0.070711 0.070711
5.000000 -0.000000 0.100000
4.000000 -0.000000 0.100000
5.000000 0.070711 0.070711
4.000000 0.070711 0.070711
6.070711 -1.070711 -0.000000
6.070711 -1.070711 -0.000000
6.070711 -1.070711 -0.000000
6.070711 -1.070711 -0.000000
6.070711 -1.070711 -0.000000
6.070711 -1.070711 -0.000000
6.070711 -1.070711 -0.000000
6.070711 -1.070711 -0.000000
6.065328 -1.065328 -0.038268
6.084462 -1.046194 -0.027060
6.092388 -1.038268 -0.000000
6.084462 -1.046194 0.027060
6.065328 -1.065328 0.038268
6.046194 -1.084462 0.027060
6.038268 -1.092388 0.000000
6.046194 -1.084462 -0.027060
6.050000 -1.050000 -0.070711
6.085355 -1.014645 -0.050000
6.100000 -1.000000 -0.000000
6.085355 -1.014645 0.050000
6.050000 -1.050000 0.070711
6.014645 -1.085355 0.050000
6.000000 -1.100000 0.000000
6.014645 -1.085355 -0.050000
6.027060 -1.027060 -0.092388
6.073254 -0.980866 -0.065328
6.092388 -0.961732 -0.000000
6.073254 -0.980866 0.065328
6.027060 -1.027060 0.092388
5.980866 -1.073254 0.065328
5.961732 -1.092388 0.000000
5.980866 -1.073254 -0.065328
6.000000 -1.000000 -0.100000
6.050000 -0.950000 -0.070711
6.070711 -0.929289 -0.000000
6.050000 -0.950000 0.070711
6.000000 -1.000000 0.100000
5.950000 -1.050000 0.070711
5.929289 -1.070711 0.000000
5.950000 -1.050000 -0.070711
6.070711 -0.929289 -0.000000
5.070711 0.070711 0.000000
6.050000 -0.950000 -0.070711
5.050000 0.050000 -0.070711
6.000000 -1.000000 -0.100000
5.000000 0.000000 -0.100000
5.950000 -1.050000 -0.070711
4.950000 -0.050000 -0.070711
5.929289 -1.070711 -0.000000
4.929289 -0.070711 0.000000
5.950000 -1.050000 0.070711
4.950000 -0.050000 0.070711
6.000000 -1.000000 0.100000
5.000000 0.000000 0.100000
6.050000 -0.950000 0.070711
5.050000 0.050000 0.070711
6.070711 1.070711 -0.000000
6.070711 1.070711 -0.000000
6.070711 1.070711 -0.000000
6.070711 1.070711 -0.000000
6.070711 1.070711 -0.000000
6.070711 1.070711 -0.000000
6.070711 1.070711 -0.000000
6.070711 1.070711 -0.000000
6.065328 1.065328 -0.038268
6.046194 1.084462 -0.027060
6.038268 1.092388 -0.000000
6.046194 1.084462 0.027060
6.065328 1.065328 0.038268
6.084462 1.046194 0.027060
6.092388 1.038268 -0.000000
6.084462 1.046194 -0.027060
6.050000 1.050000 -0.070711
6.014645 1.085355 -0.050000
6.000000 1.100000 -0.000000
6.014645 1.085355 0.050000
6.050000 1.050000 0.070711
6.085355 1.014645 0.050000
6.100000 1.000000 0.000000
6.085355 1.014645 -0.050000
6.027060 1.027060 -0.092388
5.980866 1.073254 -0.065328
5.961732 1.092388 -0.000000
5.980866 1.073254 0.065328
6.027060 1.027060 0.092388
6.073254 0.980866 0.065328
6.092388 0.961732 0.000000
6.073254 0.980866 -0.065328
6.000000 1.000000 -0.100000
5.950000 1.050000 -0.070711
5.929289 1.070711 0.000000
5.950000 1.050000 0.070711
6.000000 1.000000 0.100000
6.050000 0.950000 0.070711
6.070711 0.929289 0.000000
6.050000 0.950000 -0.070711
5.929289 1.070711 0.000000
4.929289 0.070711 0.000000
5.950000 1.050000 -0.070711
4.950000 0.050000 -0.070711
6.000000 1.000000 -0.100000
5.000000 0.000000 -0.100000
6.050000 0.950000 -0.070711
5.050000 -0.050000 -0.070711
6.070711 0.929289 -0.000000
5.070711 -0.070711 0.000000
6.050000 0.950000 0.070711
5.050000 -0.050000 0.070711
6.000000 1.000000 0.100000
5.000000 0.000000 0.100000
5.950000 1.050000 0.070711
4.950000 0.050000 0.070711
-1.070711 -1.070711 0.000000
-1.070711 -1.070711 0.000000
-1.070711 -1.070711 0.000000
-1.070711 -1.070711 0.000000
-1.070711 -1.070711 0.000000
-1.070711 -1.070711 0.000000
-1.070711 -1.070711 0.000000
-1.070711 -1.070711 0.000000
-1.065328 -1.065328 0.038268
-1.084462 -1.046194 0.027060
-1.092388 -1.038268 0.000000
-1.084462 -1.046194 -0.027060
-1.065328 -1.065328 -0.038268
-1.046194 -1.084462 -0.027060
-1.038268 -1.092388 -0.000000
-1.046194 -1.084462 0.027060
-1.050000 -1.050000 0.070711
-1.085355 -1.014645 0.050000
-1.100000 -1.000000 0.000000
-1.085355 -1.014645 -0.050000
-1.050000 -1.050000 -0.070711
-1.014645 -1.085355 -0.050000
-1.000000 -1.100000 -0.000000
-1.014645 -1.085355 0.050000
-1.027060 -1.027060 0.092388
-1.073254 -0.980866 0.065328
-1.092388 -0.961732 0.000000
-1.073254 -0.980866 -0.065328
-1.027060 -1.027060 -0.092388
-0.980866 -1.073254 -0.065328
-0.961732 -1.092388 -0.000000
-0.980866 -1.073254 0.065328
-1.000000 -1.000000 0.100000
-1.050000 -0.950000 0.070711
-1.070711 -0.929289 0.000000
-1.050000 -0.950000 -0.070711
-1.000000 -1.000000 -0.100000
-0.950000 -1.050000 -0.070711
-0.929289 -1.070711 -0.000000
-0.950000 -1.050000 0.070711
-1.070711 -0.929289 0.000000
-0.070711 0.070711 0.000000
-1.050000 -0.950000 0.070711
-0.050000 0.050000 0.070711
-1.000000 -1.000000 0.100000
0.000000 0.000000 0.100000
-0.950000 -1.050000 0.070711
0.050000 -0.050000 0.070711
-0.929289 -1.070711 0.000000
0.070711 -0.070711 0.000000
-0.950000 -1.050000 -0.070711
0.050000 -0.050000 -0.070711
-1.000000 -1.000000 -0.100000
0.000000 0.000000 -0.100000
-1.050000 -0.950000 -0.070711
-0.050000 0.050000 -0.070711
-1.000000 -2.500000 0.000000
-1.000000 -2.500000 0.000000
-1.000000 -2.500000 0.000000
-1.000000 -2.500000 0.000000
-1.000000 -2.500000 0.000000
-1.000000 -2.500000 0.000000
-1.000000 -2.500000 0.000000
-1.000000 -2.500000 0.000000
-1.000000 -2.461940 0.191342
-1.135299 -2.461940 0.135299
-1.191342 -2.461940 0.000000
-1.135299 -2.461940 -0.135299
-1.000000 -2.461940 -0.191342
-0.864701 -2.461940 -0.135299
-0.808658 -2.461940 -0.000000
-0.864701 -2.461940 0.135299
-1.000000 -2.353553 0.353553
-1.250000 -2.353553 0.250000
-1.353553 -2.353553 0.000000
-1.250000 -2.353553 -0.250000
-1.000000 -2.353553 -0.353553
-0.750000 -2.353553 -0.250000
-0.646447 -2.353553 -0.000000
-0.750000 -2.353553 0.250000
-1.000000 -2.191342 0.461940
-1.326641 -2.191342 0.326641
-1.461940 -2.191342 0.000000
-1.326641 -2.191342 -0.326641
-1.000000 -2.191342 -0.461940
-0.673359 -2.191342 -0.326641
-0.538060 -2.191342 -0.000000
-0.673359 -2.191342 0.326641
-1.000000 -2.000000 0.500000
-1.353553 -2.000000 0.353553
-1.500000 -2.000000 0.000000
-1.353553 -2.000000 -0.353553
-1.000000 -2.000000 -0.500000
-0.646447 -2.000000 -0.353553
-0.500000 -2.000000 -0.000000
-0.646447 -2.000000 0.353553
-1.500000 -2.000000 0.000000
-1.100000 -1.000000 0.000000
-1.353553 -2.000000 0.353553
-1.070711 -1.000000 0.070711
-1.000000 -2.000000 0.500000
-1.000000 -1.000000 0.100000
-0.646447 -2.000000 0.353553
-0.929289 -1.000000 0.070711
-0.500000 -2.000000 0.000000
-0.900000 -1.000000 0.000000
-0.646447 -2.000000 -0.353553
-0.929289 -1.000000 -0.070711
-1.000000 -2.000000 -0.500000
-1.000000 -1.000000 -0.100000
-1.353553 -2.000000 -0.353553
-1.070711 -1.000000 -0.070711
-1.000000 -3.500000 0.000000
-1.000000 -3.500000 0.000000
-1.000000 -3.500000 0.000000
-1.000000 -3.500000 0.000000
-1.000000 -3.500000 0.000000
-1.000000 -3.500000 0.000000
-1.000000 -3.500000 0.000000
-1.000000 -3.500000 0.000000
-1.000000 -3.461940 0.191342
-1.135299 -3.461940 0.135299
-1.191342 -3.461940 0.000000
-1.135299 -3.461940 -0.135299
-1.000000 -3.461940 -0.191342
-0.864701 -3.461940 -0.135299
-0.808658 -3.461940 -0.000000
-0.864701 -3.461940 0.135299
-1.000000 -3.353553 0.353553
-1.250000 -3.353553 0.250000
-1.353553 -3.353553 0.000000
-1.250000 -3.353553 -0.250000
-1.000000 -3.353553 -0.353553
-0.750000 -3.353553 -0.250000
-0.646447 -3.353553 -0.000000
-0.750000 -3.353553 0.250000
-1.000000 -3.191342 0.461940
-1.326641 -3.191342 0.326641
-1.461940 -3.191342 0.000000
-1.326641 -3.191342 -0.326641
-1.000000 -3.191342 -0.461940
-0.673359 -3.191342 -0.326641
-0.538060 -3.191342 -0.000000
-0.673359 -3.191342 0.326641
-1.000000 -3.000000 0.500000
-1.353553 -3.000000 0.353553
-1.500000 -3.000000 0.000000
-1.353553 -3.000000 -0.353553
-1.000000 -3.000000 -0.500000
-0.646447 -3.000000 -0.353553
-0.500000 -3.000000 -0.000000
-0.646447 -3.000000 0.353553
-1.500000 -3.000000 0.000000
-1.500000 -2.000000 0.000000
-1.353553 -3.000000 0.353553
-1.353553 -2.000000 0.353553
-1.000000 -3.000000 0.500000
-1.000000 -2.000000 0.500000
-0.646447 -3.000000 0.353553
-0.646447 -2.000000 0.353553
-0.500000 -3.000000 0.000000
-0.500000 -2.000000 0.000000
-0.646447 -3.000000 -0.353553
-0.646447 -2.000000 -0.353553
-1.000000 -3.000000 -0.500000
-1.000000 -2.000000 -0.500000
-1.353553 -3.000000 -0.353553
-1.353553 -2.000000 -0.353553

CELLS 50 950
18 0 8 1 9 2 10 3 11 4 12 5 13 6 14 7 15 0 8
18 8 16 9 17 10 18 11 19 12 20 13 21 14 22 15 23 8 16
18 16 24 17 25 18 26 19 27 20 28 21 29 22 30 23 31 16 24
18 24 32 25 33 26 34 27 35 28 36 29 37 30 38 31 39 24 32
18 40 41 42 43 44 45 46 47 48 49 50 51 52 53 54 55 40 41
18 56 64 57 65 58 66 59 67 60 68 61 69 62 70 63 71 56 64
18 64 72 65 73 66 74 67 75 68 76 69 77 70 78 71 79 64 72
18 72 80 73 81 74 82 75 83 76 84 77 85 78 86 79 87 72 80
18 80 88 81 89 82 90 83 91 84 92 85 93 86 94 87 95 80 88
18 96 97 98 99 100 101 102 103 104 105 106 107 108 109 110 111 96 97
18 112 120 113 121 114 122 115 123 116 124 117 125 118 126 119 127 112 120
18 120 128 121 129 122 130 123 131 124 132 125 133 126 134 127 135 120 128
18 128 136 129 137 130 138 131 139 132 140 133 141 134 142 135 143 128 136
18 136 144 137 145 138 146 139 147 140 148 141 149 142 150 143 151 136 144
18 152 153 154 155 156 157 158 159 160 161 162 163 164 165 166 167 152 153
18 168 176 169 177 170 178 171 179 172 180 173 181 174 182 175 183 168 176
18 176 184 177 185 178 186 179 187 180 188 181 189 182 190 183 191 176 184
18 184 192 185 193 186 194 187 195 188 196 189 197 190 198 191 199 184 192
18 192 200 193 201 194 202 195 203 196 204 197 205 198 206 199 207 192 200
18 208 209 210 211 212 213 214 215 216 217 218 219 220 221 222 223 208 209
18 224 232 225 233 226 234 227 235 228 236 229 237 230 238 231 239 224 232
18 232 240 233 241 234 242 235 243 236 244 237 245 238 246 239 247 232 240
18 240 248 241 249 242 250 243 251 244 252 245 253 246 254 247 255 240 248
18 248 256 249 257 250 258 251 259 252 260 253 261 254 262 255 263 248 256
18 264 265 266 267 268 269 270 271 272 273 274 275 276 277 278 279 264 265
18 280 288 281 289 282 290 283 291 284 292 285 293 286 294 287 295 280 288
18 288 296 289 297 290 298 291 299 292 300 293 301 294 302 295 303 288 296
18 296 304 297 305 298 306 299 307 300 308 301 309 302 310 303 311 296 304
18 304 312 305 313 306 314 307 315 308 316 309 317 310 318 311 319 304 312
18 320 321 322 323 324 325 326 327 328 329 330 331 332 333 334 335 320 321
18 336 344 337 345 338 346 339 347 340 348 341 349 342 350 343 351 336 344
18 344 352 345 353 346 354 347 355 348 356 349 357 350 358 351 359 344 352
18 352 360 353 361 354 362 355 363 356 364 357 365 358 366 359 367 352 360
18 360 368 361 369 362 370 363 371 364 372 365 373 366 374 367 375 360 368
18 376 377 378 379 380 381 382 383 384 385 386 387 388 389 390 391 376 377
18 392 400 393 401 394 402 395 403 396 404 397 405 398 406 399 407 392 400
18 400 408 401 409 402 410 403 411 404 412 405 413 406 414 407 415 400 408
18 408 416 409 417 410 418 411 419 412 420 413 421 414 422 415 423 408 416
18 416 424 417 425 418 426 419 427 420 428 421 429 422 430 423 431 416 424
18 432 433 434 435 436 437 438 439 440 441 442 443 444 445 446 447 432 433
18 448 456 449 457 450 458 451 459 452 460 453 461 454 462 455 463 448 456
18 456 464 457 465 458 466 459 467 460 468 461 469 462 470 463 471 456 464
18 464 472 465 473 466 474 467 475 468 476 469 477 470 478 471 479 464 472
18 472 480 473 481 474 482 475 483 476 484 477 485 478 486 479 487 472 480
18 488 489 490 491 492 493 494 495 496 497 498 499 500 501 502 503 488 489
18 504 512 505 513 506 514 507 515 508 516 509 517 510 518 511 519 504 512
18 512 520 513 521 514 522 515 523 516 524 517 525 518 526 519 527 512 520
18 520 528 521 529 522 530 523 531 524 532 525 533 526 534 527 535 520 528
18 528 536 529 537 530 538 531 539 532 540 533 541 534 542 535 543 528 536
18 544 545 546 547 548 549 550 551 552 553 554 555 556 557 558 559 544 545

CELL_TYPES 50
6
6
6
6
6
6
6
6
6
6
6
6
6
6
6
6
6
6
6
6
6
6
6
6
6
6
6
6
6
6
6
6
6
6
6
6
6
6
6
6
6
6
6
6
6
6
6
6
6
6

CELL_DATA 50
SCALARS data float 1
LOOKUP_TABLE default
0.18181818181818182
0.18181818181818182
0.18181818181818182
0.18181818181818182
0.18181818181818182
0.2727272727272727
0.2727272727272727
0.2727272727272727
0.2727272727272727
0.2727272727272727
0.36363636363636365
0.36363636363636365
0.36363636363636365
0.36363636363636365
0.36363636363636365
0.45454545454545453
0.45454545454545453
0.45454545454545453
0.45454545454545453
0.45454545454545453
0.5454545454545454
0.5454545454545454
0.5454545454545454
0.5454545454545454
0.5454545454545454
0.6363636363636364
0.6363636363636364
0.6363636363636364
0.6363636363636364
0.6363636363636364
0.7272727272727273
0.7272727272727273
0.7272727272727273
0.7272727272727273
0.7272727272727273
0.8181818181818182
0.8181818181818182
0.8181818181818182
0.8181818181818182
0.8181818181818182
0.9090909090909091
0.9090909090909091
0.9090909090909091
0.9090909090909091
0.9090909090909091
1.0
1.0
1.0
1.0
1.0
